<?xml version="1.0" encoding="UTF-8"?>

<!-- generated on 2025-07-28 07:18:05 by Eclipse SUMO GUI Version 1.24.0
<sumoConfiguration xmlns:xsi="http://www.w3.org/2001/XMLSchema-instance" xsi:noNamespaceSchemaLocation="http://sumo.dlr.de/xsd/sumoConfiguration.xsd">

    <input>
        <net-file value="sumo_sim/map.net.xml"/>
        <route-files value="sumo_sim/routes.rou.xml,sumo_sim/randomRoutes.rou.xml"/>
        <additional-files value="sumo_sim/additional.add.xml"/>
    </input>

    <output>
        <tripinfo-output value="sumo_sim/tripinfo.xml"/>
    </output>

    <time>
        <begin value="0"/>
        <end value="200"/>
    </time>

    <report>
        <verbose value="true"/>
        <no-step-log value="true"/>
    </report>

    <traci_server>
        <remote-port value="58910"/>
    </traci_server>

</sumoConfiguration>
-->

<tripinfos xmlns:xsi="http://www.w3.org/2001/XMLSchema-instance" xsi:noNamespaceSchemaLocation="http://sumo.dlr.de/xsd/tripinfo_file.xsd">
</tripinfos>
